ITEM: TIMESTEP
0
ITEM: NUMBER OF ATOMS
548
ITEM: BOX BOUNDS pp pp pp
0 28
0 28
0 28
ITEM: ATOMS id id type x y z ix iy iz 
377 377 1 5.63579 6.41899 5.44195 0 0 0 
378 378 2 6.46391 5.58731 4.44488 0 0 0 
379 379 2 6.14881 5.88525 2.9672 0 0 0 
380 380 2 6.97693 5.05357 1.97014 0 0 0 
13 13 1 9.71588 5.58778 6.68646 0 0 0 
285 285 1 7.77402 1.98128 6.49574 0 0 0 
421 421 1 10.0402 2.57604 2.25257 0 0 0 
422 422 2 11.5357 2.79381 1.95684 0 0 0 
423 423 2 12.0646 4.17484 2.38659 0 0 0 
424 424 2 13.5602 4.39261 2.09086 0 0 0 
445 445 1 13.1468 1.94432 5.46149 0 0 0 
446 446 2 12.4009 2.37824 6.73705 0 0 0 
77 77 1 17.7532 1.96598 5.79514 0 0 0 
78 78 2 17.9823 1.97526 4.27231 0 0 0 
79 79 2 16.9509 2.80812 3.48873 0 0 0 
80 80 2 17.18 2.8174 1.96591 0 0 0 
103 103 2 15.1159 6.40233 5.71403 0 0 0 
104 104 2 15.3778 5.05898 6.42003 0 0 0 
477 477 1 18.9621 6.24428 2.79189 0 0 0 
478 478 2 19.7519 5.66119 3.97841 0 0 0 
479 479 2 19.0868 5.8928 5.34793 0 0 0 
480 480 2 19.8766 5.30971 6.53445 0 0 0 
109 109 1 24.0109 5.03166 6.7518 0 0 0 
110 110 2 25.1222 4.14872 6.15422 0 0 0 
111 111 2 24.6093 2.8492 5.5063 0 0 0 
112 112 2 25.7205 1.96626 4.90872 0 0 0 
493 493 1 26.0381 5.67271 1.97145 0 0 0 
494 494 2 25.0586 4.48484 1.93937 0 0 0 
495 495 2 23.5812 4.88651 2.10621 0 0 0 
496 496 2 22.6017 3.69863 2.07412 0 0 0 
180 180 2 1.96978 12.8566 6.43148 0 0 0 
205 205 1 3.28634 12.924 1.98925 0 0 0 
544 544 2 6.18075 10.7272 4.37587 0 0 0 
14 14 2 10.2907 7.00893 6.83317 0 0 0 
15 15 2 10.7574 7.63589 5.50626 0 0 0 
16 16 2 11.3323 9.05703 5.65297 0 0 0 
215 215 2 9.99053 13.2695 1.96778 0 0 0 
216 216 2 10.9904 12.0982 1.97869 0 0 0 
473 473 1 12.407 8.16814 1.95739 0 0 0 
474 474 2 13.6934 9.01434 1.98485 0 0 0 
541 541 1 9.42154 12.5105 5.80192 0 0 0 
542 542 2 8.24556 11.5204 5.70994 0 0 0 
543 543 2 7.35672 11.7173 4.46784 0 0 0 
101 101 1 15.2772 8.97782 5.82924 0 0 0 
102 102 2 15.5391 7.63447 6.53524 0 0 0 
234 234 2 19.1879 13.7912 5.37545 0 0 0 
235 235 2 17.9602 13.3731 4.54518 0 0 0 
236 236 2 17.6675 11.8615 4.57743 0 0 0 
265 265 1 14.8805 12.7812 1.93438 0 0 0 
305 305 1 20.9137 10.0135 5.85903 0 0 0 
439 439 2 20.63 11.9741 1.96799 0 0 0 
475 475 2 14.99 8.18359 1.97069 0 0 0 
476 476 2 16.2764 9.02979 1.99815 0 0 0 
33 33 1 25.6518 10.8657 1.96035 0 0 0 
34 34 2 26.0511 12.2652 2.46392 0 0 0 
35 35 2 25.153 13.4 1.93761 0 0 0 
73 73 1 26.0343 10.62 6.65185 0 0 0 
74 74 2 24.9012 10.0854 5.75629 0 0 0 
75 75 2 25.1537 8.66992 5.20468 0 0 0 
76 76 2 24.0206 8.13537 4.30911 0 0 0 
437 437 1 21.1283 9.43957 1.95714 0 0 0 
438 438 2 21.702 10.8685 1.98031 0 0 0 
440 440 2 21.2037 13.4031 1.99116 0 0 0 
488 488 2 23.1392 13.8157 5.40947 0 0 0 
1 1 1 5.91411 17.0028 2.56353 0 0 0 
2 2 2 6.20568 17.1289 4.07041 0 0 0 
3 3 2 5.08522 17.8199 4.86953 0 0 0 
4 4 2 5.37679 17.946 6.37641 0 0 0 
206 206 2 2.87436 14.1577 2.81386 0 0 0 
207 207 2 2.37925 15.3425 1.96376 0 0 0 
208 208 2 1.96727 16.5762 2.78837 0 0 0 
464 464 2 1.96914 19.9426 6.41753 0 0 0 
545 545 1 3.56907 20.1285 1.98838 0 0 0 
105 105 1 12.4635 19.4671 5.739 0 0 0 
106 106 2 11.2562 18.8292 6.451 0 0 0 
107 107 2 10.6642 17.614 5.71314 0 0 0 
108 108 2 9.45682 16.9761 6.42514 0 0 0 
213 213 1 9.65375 15.8305 1.97357 0 0 0 
214 214 2 10.6536 14.6593 1.98448 0 0 0 
268 268 2 13.8466 15.6035 4.51947 0 0 0 
511 511 2 9.92676 20.6895 1.91995 0 0 0 
512 512 2 9.10072 19.6687 2.72445 0 0 0 
233 233 1 19.4805 15.3028 5.34321 0 0 0 
266 266 2 14.6695 14.1897 2.5203 0 0 0 
267 267 2 14.0577 14.195 3.93354 0 0 0 
346 346 2 16.1384 18.3617 6.67516 0 0 0 
530 530 2 15.2548 20.8573 2.18852 0 0 0 
531 531 2 15.4172 19.498 2.89391 0 0 0 
532 532 2 15.2236 18.2839 1.96646 0 0 0 
36 36 2 25.5523 14.7996 2.44118 0 0 0 
486 486 2 25.2228 14.483 6.78283 0 0 0 
487 487 2 23.9536 14.9554 6.04955 0 0 0 
490 490 2 26.0482 20.4968 3.26605 0 0 0 
491 491 2 25.9256 18.9709 3.09818 0 0 0 
492 492 2 26.0471 18.1839 4.41636 0 0 0 
505 505 1 22.3896 19.2047 5.49751 0 0 0 
506 506 2 22.0979 18.1205 4.44345 0 0 0 
507 507 2 21.9378 18.6655 3.01203 0 0 0 
508 508 2 21.6461 17.5814 1.95797 0 0 0 
149 149 1 4.97742 26.1098 4.61575 0 0 0 
150 150 2 6.18088 25.3397 4.04112 0 0 0 
151 151 2 6.15795 23.829 4.3391 0 0 0 
461 461 1 1.94436 23.8511 5.7543 0 0 0 
462 462 2 1.94376 22.523 6.5339 0 0 0 
463 463 2 1.96974 21.2707 5.63793 0 0 0 
546 546 2 3.88036 21.6366 1.97113 0 0 0 
547 547 2 2.62917 22.5343 1.95435 0 0 0 
548 548 2 2.94045 24.0424 1.9371 0 0 0 
132 132 2 12.9239 23.2616 6.73492 0 0 0 
152 152 2 7.36141 23.0589 3.76447 0 0 0 
254 254 2 12.9754 26.0275 3.38945 0 0 0 
255 255 2 11.672 26.0282 4.20965 0 0 0 
256 256 2 10.3926 26.0298 3.35253 0 0 0 
509 509 1 11.7006 22.5664 1.97589 0 0 0 
510 510 2 10.8746 21.5456 2.78039 0 0 0 
253 253 1 14.2549 26.0259 4.24657 0 0 0 
333 333 1 19.5662 22.0189 5.78999 0 0 0 
334 334 2 19.1778 21.2744 4.49906 0 0 0 
335 335 2 19.5614 22.0192 3.20689 0 0 0 
336 336 2 19.173 21.2748 1.91596 0 0 0 
373 373 1 18.1025 25.9867 5.85341 0 0 0 
374 374 2 18.9019 26.026 4.53771 0 0 0 
375 375 2 18.071 25.6759 3.28926 0 0 0 
376 376 2 18.8703 25.7152 1.97356 0 0 0 
529 529 1 15.4484 22.0713 3.11596 0 0 0 
169 169 1 24.4253 26.048 1.96216 0 0 0 
170 170 2 24.5075 24.8405 2.91448 0 0 0 
171 171 2 23.1365 24.2689 3.32089 0 0 0 
172 172 2 23.2187 23.0614 4.27322 0 0 0 
281 281 1 25.6428 25.3559 6.78808 0 0 0 
282 282 2 24.2659 26.0355 6.67105 0 0 0 
489 489 1 25.9267 21.2837 1.94788 0 0 0 
237 237 1 1.9744 3.06591 12.6281 0 0 0 
239 239 2 1.97227 5.28982 13.9421 0 0 0 
401 401 1 5.69858 6 10.6252 0 0 0 
402 402 2 5.56534 4.54896 11.122 0 0 0 
403 403 2 6.02842 4.33954 12.5758 0 0 0 
404 404 2 5.89518 2.888 13.0726 0 0 0 
537 537 1 2.3078 4.37408 7.11081 0 0 0 
538 538 2 2.07517 5.42626 8.211 0 0 0 
539 539 2 2.20763 6.88129 7.72425 0 0 0 
198 198 2 10.5321 5.91406 13.1419 0 0 0 
199 199 2 9.81152 6.30459 11.8381 0 0 0 
200 200 2 10.3889 5.63337 10.578 0 0 0 
286 286 2 8.61618 1.9568 7.78484 0 0 0 
287 287 2 7.78213 1.99758 9.07878 0 0 0 
288 288 2 8.62429 1.9731 10.3679 0 0 0 
293 293 1 13.1457 2.95297 13.1671 0 0 0 
447 447 2 13.1445 2.04093 8.04279 0 0 0 
448 448 2 12.3987 2.47485 9.31835 0 0 0 
21 21 1 16.3059 1.97256 10.5833 0 0 0 
22 22 2 17.2474 3.15614 10.8737 0 0 0 
23 23 2 17.0614 4.35261 9.92218 0 0 0 
24 24 2 18.0029 5.53618 10.2126 0 0 0 
61 61 1 15.11 6.8884 13.8043 0 0 0 
62 62 2 14.8386 6.62262 12.3119 0 0 0 
164 164 2 19.6754 2.00756 13.7692 0 0 0 
468 468 2 20.442 2.04697 8.68696 0 0 0 
161 161 1 23.6379 1.97025 13.6536 0 0 0 
163 163 2 21.0983 1.964 13.1818 0 0 0 
165 165 1 21.8023 5.34984 11.2742 0 0 0 
166 166 2 22.0742 6.124 12.5774 0 0 0 
410 410 2 25.732 6.84306 10.5001 0 0 0 
411 411 2 26.0504 5.3373 10.4468 0 0 0 
412 412 2 25.9087 4.61869 11.8014 0 0 0 
465 465 1 24.3506 1.94817 9.34252 0 0 0 
466 466 2 22.8397 1.90867 9.63795 0 0 0 
467 467 2 21.9529 2.08648 8.39153 0 0 0 
17 17 1 6.5384 9.67164 9.33809 0 0 0 
18 18 2 5.64916 10.6418 10.1379 0 0 0 
19 19 2 6.42931 11.5623 11.0948 0 0 0 
20 20 2 5.54008 12.5324 11.8946 0 0 0 
177 177 1 1.95691 12.0341 10.3096 0 0 0 
178 178 2 1.95747 12.8674 9.01453 0 0 0 
179 179 2 1.96922 12.0233 7.72654 0 0 0 
389 389 1 2.78656 8.90301 12.5698 0 0 0 
390 390 2 3.14988 9.48525 13.9484 0 0 0 
540 540 2 1.975 7.93346 8.82443 0 0 0 
53 53 1 13.9809 12.35 7.42471 0 0 0 
64 64 2 13.8342 7.5055 10.1019 0 0 0 
273 273 1 9.78384 10.306 13.0874 0 0 0 
274 274 2 10.7755 10.1336 11.9219 0 0 0 
275 275 2 10.2008 10.524 10.5475 0 0 0 
276 276 2 11.1924 10.3516 9.38198 0 0 0 
32 32 2 19.6958 13.0071 12.3152 0 0 0 
54 54 2 15.4206 12.7985 7.73716 0 0 0 
55 55 2 15.6145 13.3288 9.16992 0 0 0 
56 56 2 17.0542 13.7774 9.48238 0 0 0 
63 63 2 14.1056 7.77128 11.5943 0 0 0 
223 223 2 14.2134 12.2544 13.9108 0 0 0 
224 224 2 15.3623 12.8607 13.0837 0 0 0 
349 349 1 17.8624 9.88257 8.80284 0 0 0 
350 350 2 18.3214 9.47307 10.2146 0 0 0 
351 351 2 17.3878 9.95392 11.341 0 0 0 
352 352 2 17.8469 9.54443 12.7528 0 0 0 
167 167 2 21.0278 7.20953 12.891 0 0 0 
173 173 1 25.1303 11.2138 10.4526 0 0 0 
174 174 2 24.331 11.149 11.7673 0 0 0 
175 175 2 25.1283 11.5935 13.0076 0 0 0 
306 306 2 21.2828 9.06203 7.01233 0 0 0 
307 307 2 21.7766 9.77935 8.28243 0 0 0 
308 308 2 22.1458 8.82791 9.43574 0 0 0 
381 381 1 22.1815 13.5747 9.29846 0 0 0 
409 409 1 25.8737 7.56167 9.14546 0 0 0 
69 69 1 1.96911 20.4337 13.2125 0 0 0 
329 329 1 4.75876 16.3547 12.6364 0 0 0 
330 330 2 3.96354 17.3034 11.7203 0 0 0 
331 331 2 3.04022 16.5816 10.7213 0 0 0 
332 332 2 2.245 17.5303 9.80524 0 0 0 
354 354 2 6.51308 15.4475 9.21615 0 0 0 
355 355 2 6.85608 14.4961 8.05479 0 0 0 
356 356 2 5.64266 14.0917 7.19704 0 0 0 
9 9 1 12.6121 15.8437 8.65803 0 0 0 
10 10 2 11.7148 16.3513 9.80207 0 0 0 
11 11 2 11.9759 17.8159 10.2001 0 0 0 
12 12 2 11.0787 18.3236 11.3442 0 0 0 
353 353 1 7.7265 15.8518 10.0739 0 0 0 
365 365 1 9.89228 15.0588 13.2799 0 0 0 
441 441 1 7.93278 20.8881 7.01447 0 0 0 
442 442 2 8.02476 20.1171 8.34436 0 0 0 
443 443 2 7.50678 20.9047 9.56215 0 0 0 
444 444 2 7.59875 20.1336 10.892 0 0 0 
29 29 1 19.283 16.7742 13.4793 0 0 0 
30 30 2 19.9263 15.5232 12.8527 0 0 0 
31 31 2 19.0525 14.2582 12.9419 0 0 0 
46 46 2 18.8062 20.7973 11.0038 0 0 0 
48 48 2 18.4317 20.9895 13.5523 0 0 0 
292 292 2 14.8589 20.8612 11.1222 0 0 0 
339 339 2 15.4183 17.4345 13.0053 0 0 0 
340 340 2 15.3973 16.5707 11.7305 0 0 0 
345 345 1 16.4098 16.9431 7.20948 0 0 0 
347 347 2 16.3213 19.4725 7.72602 0 0 0 
348 348 2 16.05 20.8911 7.1917 0 0 0 
384 384 2 20.3247 17.0401 8.78842 0 0 0 
37 37 1 26.0331 19.7408 8.04612 0 0 0 
38 38 2 24.6498 20.1273 8.60158 0 0 0 
315 315 2 22.2032 20.0357 12.8687 0 0 0 
316 316 2 22.1715 18.9015 11.8275 0 0 0 
382 382 2 21.0883 14.574 8.87644 0 0 0 
383 383 2 21.4178 16.0408 9.21043 0 0 0 
393 393 1 25.079 16.3045 11.1931 0 0 0 
394 394 2 25.9621 15.859 12.3735 0 0 0 
395 395 2 25.1718 15.4914 13.6431 0 0 0 
485 485 1 26.0371 15.6227 7.42291 0 0 0 
527 527 2 26.0335 20.3964 13.7618 0 0 0 
528 528 2 26.1064 20.0177 12.2708 0 0 0 
70 70 2 2.61654 21.7039 13.7949 0 0 0 
71 71 2 1.92853 23.0121 13.3629 0 0 0 
72 72 2 2.57595 24.2823 13.9454 0 0 0 
369 369 1 3.72293 21.9428 10.0114 0 0 0 
370 370 2 4.16925 23.4115 10.135 0 0 0 
371 371 2 3.0642 24.4319 9.80439 0 0 0 
372 372 2 3.51053 25.9006 9.92791 0 0 0 
405 405 1 6.88883 25.2919 7.97398 0 0 0 
522 522 2 6.44167 25.8282 13.9843 0 0 0 
523 523 2 6.78209 24.3618 13.6592 0 0 0 
129 129 1 11.2372 22.0756 10.1209 0 0 0 
130 130 2 11.5831 22.1134 8.62073 0 0 0 
131 131 2 12.578 23.2238 8.23509 0 0 0 
406 406 2 7.92902 26.0362 8.83166 0 0 0 
407 407 2 9.27603 25.301 8.96071 0 0 0 
408 408 2 10.3162 26.0453 9.81839 0 0 0 
524 524 2 7.40863 24.158 12.2673 0 0 0 
45 45 1 19.0668 21.5351 9.67736 0 0 0 
47 47 2 18.6923 21.7273 12.2259 0 0 0 
155 155 2 19.8972 25.6654 12.3763 0 0 0 
156 156 2 19.0257 26.0276 13.5933 0 0 0 
290 290 2 14.4927 21.2596 13.648 0 0 0 
291 291 2 14.746 21.8875 12.2648 0 0 0 
513 513 1 15.4238 25.9129 8.75509 0 0 0 
514 514 2 14.7925 25.9096 10.1597 0 0 0 
515 515 2 15.8146 25.7911 11.3055 0 0 0 
516 516 2 15.1833 25.7877 12.7102 0 0 0 
39 39 2 24.5317 21.6061 9.01509 0 0 0 
40 40 2 23.1483 21.9926 9.57055 0 0 0 
153 153 1 22.256 25.6667 11.3236 0 0 0 
154 154 2 21.3846 26.0289 12.5406 0 0 0 
249 249 1 25.7451 23.941 11.9914 0 0 0 
250 250 2 26.0309 24.4425 13.4191 0 0 0 
283 283 2 23.1573 25.3501 7.49133 0 0 0 
284 284 2 21.7804 26.0297 7.3743 0 0 0 
118 118 2 6.31347 2.58405 20.7706 0 0 0 
238 238 2 1.97117 3.7512 14.0072 0 0 0 
240 240 2 1.96904 5.97511 15.3212 0 0 0 
242 242 2 6.21558 5.97302 17.6019 0 0 0 
243 243 2 6.16173 4.81585 16.5872 0 0 0 
244 244 2 4.96811 3.86333 16.7862 0 0 0 
460 460 2 2.39733 4.06023 19.7784 0 0 0 
119 119 2 7.48532 2.98934 19.8573 0 0 0 
120 120 2 7.80981 1.95862 18.7601 0 0 0 
157 157 1 9.64209 2.76517 15.3553 0 0 0 
158 158 2 10.7217 3.16404 16.3785 0 0 0 
159 159 2 11.458 1.96821 17.0105 0 0 0 
160 160 2 12.5376 2.36708 18.0337 0 0 0 
197 197 1 9.95478 6.58527 14.4019 0 0 0 
241 241 1 7.4092 6.92554 17.403 0 0 0 
420 420 2 9.98594 6.02059 20.2565 0 0 0 
97 97 1 18.4621 5.43414 15.3131 0 0 0 
98 98 2 19.6167 5.06855 16.2643 0 0 0 
99 99 2 19.874 6.11217 17.3671 0 0 0 
247 247 2 17.8785 3.03958 20.8046 0 0 0 
248 248 2 16.7741 1.96945 20.8867 0 0 0 
294 294 2 14.1367 3.09847 14.3369 0 0 0 
295 295 2 15.1803 1.96889 14.418 0 0 0 
296 296 2 16.1712 2.11439 15.5878 0 0 0 
502 502 2 15.4779 6.33848 20.2858 0 0 0 
503 503 2 14.9116 5.2383 19.369 0 0 0 
504 504 2 15.5445 5.20536 17.9654 0 0 0 
100 100 2 21.0286 5.74659 18.3183 0 0 0 
133 133 1 22.1836 1.97155 18.1901 0 0 0 
134 134 2 21.4695 1.96614 19.5545 0 0 0 
135 135 2 22.4251 1.99671 20.7618 0 0 0 
162 162 2 22.215 2.01381 14.241 0 0 0 
397 397 1 24.6752 4.83364 16.2789 0 0 0 
398 398 2 25.6799 5.7627 15.5724 0 0 0 
431 431 2 25.7416 4.15355 20.0203 0 0 0 
432 432 2 26.0358 2.7885 19.3709 0 0 0 
65 65 1 1.97305 7.87327 18.7852 0 0 0 
66 66 2 2.61254 9.22022 19.1704 0 0 0 
67 67 2 1.97034 10.4384 18.481 0 0 0 
68 68 2 2.60983 11.7854 18.8662 0 0 0 
201 201 1 2.49975 13.303 15.2213 0 0 0 
391 391 2 4.46286 8.93409 14.5349 0 0 0 
392 392 2 4.82618 9.51634 15.9135 0 0 0 
221 221 1 13.2235 10.1429 15.0216 0 0 0 
368 368 2 11.6197 13.6339 16.5513 0 0 0 
387 387 2 7.00729 13.3199 16.5984 0 0 0 
388 388 2 7.39858 12.4639 15.3794 0 0 0 
417 417 1 12.603 8.45128 18.5363 0 0 0 
418 418 2 11.6046 7.28939 18.6937 0 0 0 
419 419 2 10.9844 7.18248 20.0992 0 0 0 
433 433 1 11.1382 11.7172 20.2064 0 0 0 
434 434 2 9.84784 11.5306 19.3868 0 0 0 
435 435 2 8.8094 10.6099 20.0543 0 0 0 
436 436 2 7.51908 10.4233 19.2346 0 0 0 
86 86 2 20.7012 11.6693 18.1598 0 0 0 
87 87 2 20.9605 11.2444 16.7025 0 0 0 
88 88 2 19.6938 11.2011 15.8278 0 0 0 
222 222 2 14.3724 10.7491 14.1946 0 0 0 
361 361 1 15.3131 12.312 17.7031 0 0 0 
362 362 2 16.4012 11.4378 18.3539 0 0 0 
363 363 2 16.479 10.0084 17.786 0 0 0 
364 364 2 17.5671 9.13424 18.4367 0 0 0 
85 85 1 21.968 11.7126 19.0345 0 0 0 
168 168 2 21.2996 7.98369 14.1942 0 0 0 
176 176 2 24.329 11.5288 14.3224 0 0 0 
309 309 1 24.3899 7.72764 19.0223 0 0 0 
310 310 2 25.2053 9.03178 19.099 0 0 0 
311 311 2 25.2152 9.84226 17.7896 0 0 0 
312 312 2 26.0306 11.1464 17.8662 0 0 0 
399 399 2 25.0511 7.04814 15.0033 0 0 0 
400 400 2 26.0557 7.97719 14.2968 0 0 0 
202 202 2 1.96894 14.7121 14.8986 0 0 0 
203 203 2 2.50386 15.8124 15.8339 0 0 0 
204 204 2 1.97306 17.2215 15.5112 0 0 0 
324 324 2 6.4489 18.8505 15.1889 0 0 0 
342 342 2 3.02151 18.3485 20.6628 0 0 0 
343 343 2 4.555 18.3237 20.802 0 0 0 
344 344 2 5.30534 18.8303 19.5563 0 0 0 
385 385 1 6.09757 15.5802 17.4562 0 0 0 
386 386 2 6.48886 14.7243 16.2372 0 0 0 
25 25 1 13.2244 15.441 19.8096 0 0 0 
26 26 2 13.0805 16.5618 18.7633 0 0 0 
27 27 2 12.9113 17.9671 19.37 0 0 0 
28 28 2 12.7673 19.0879 18.3237 0 0 0 
113 113 1 9.33335 19.0534 20.6427 0 0 0 
321 321 1 10.3933 18.4547 15.2315 0 0 0 
322 322 2 8.97052 18.6368 14.671 0 0 0 
323 323 2 7.87165 18.6683 15.7494 0 0 0 
366 366 2 10.7595 14.1503 14.171 0 0 0 
367 367 2 10.7524 14.5424 15.6602 0 0 0 
142 142 2 20.0189 18.5799 19.4099 0 0 0 
143 143 2 20.1633 18.3978 17.8876 0 0 0 
144 144 2 19.0174 19.0228 17.0705 0 0 0 
186 186 2 16.3199 20.6347 20.9224 0 0 0 
337 337 1 15.3925 17.4865 15.5877 0 0 0 
338 338 2 15.3714 16.6226 14.313 0 0 0 
469 469 1 17.0789 16.1149 20.3491 0 0 0 
470 470 2 17.0861 15.9665 18.8163 0 0 0 
471 471 2 18.169 15.0093 18.2847 0 0 0 
472 472 2 18.1761 14.861 16.7519 0 0 0 
141 141 1 21.1649 17.9548 20.227 0 0 0 
313 313 1 22.173 20.6823 15.3694 0 0 0 
314 314 2 22.1413 19.5481 14.3282 0 0 0 
396 396 2 26.0549 15.0459 14.8235 0 0 0 
449 449 1 25.2895 16.5996 18.7206 0 0 0 
450 450 2 24.019 16.5596 17.8512 0 0 0 
451 451 2 23.3855 15.1611 17.7317 0 0 0 
452 452 2 22.115 15.1211 16.8623 0 0 0 
483 483 2 24.677 20.9407 19.7656 0 0 0 
525 525 1 25.9824 19.567 16.2076 0 0 0 
526 526 2 26.0554 19.1883 14.7166 0 0 0 
41 41 1 1.95659 22.2096 17.9241 0 0 0 
42 42 2 3.396 21.7263 17.6671 0 0 0 
43 43 2 4.3462 22.8284 17.1629 0 0 0 
44 44 2 5.78561 22.345 16.9059 0 0 0 
210 210 2 5.51198 23.404 20.8929 0 0 0 
521 521 1 5.81513 26.032 15.3762 0 0 0 
121 121 1 12.5978 23.6636 20.1384 0 0 0 
181 181 1 9.58388 26.0336 18.9004 0 0 0 
182 182 2 9.74684 26.0088 17.3693 0 0 0 
183 183 2 11.2118 26.0272 16.8949 0 0 0 
184 184 2 11.3748 26.0024 15.3637 0 0 0 
269 269 1 9.51802 22.1504 18.1824 0 0 0 
270 270 2 10.3647 22.0342 16.9013 0 0 0 
271 271 2 9.61028 22.4182 15.6149 0 0 0 
272 272 2 10.457 22.302 14.3338 0 0 0 
145 145 1 17.2036 25.5088 20.1847 0 0 0 
146 146 2 16.7648 26.0599 18.8152 0 0 0 
147 147 2 15.6164 25.2697 18.1608 0 0 0 
148 148 2 15.1776 25.8208 16.7914 0 0 0 
187 187 2 16.0414 21.7452 19.8924 0 0 0 
188 188 2 16.0623 21.2628 18.4301 0 0 0 
289 289 1 14.3799 22.2858 14.7906 0 0 0 
325 325 1 18.7717 23.4785 16.5999 0 0 0 
326 326 2 20.0294 23.2568 17.4605 0 0 0 
327 327 2 19.7425 22.6372 18.8408 0 0 0 
251 251 2 24.765 24.7604 14.2364 0 0 0 
252 252 2 25.0507 25.2619 15.6642 0 0 0 
328 328 2 21 22.4155 19.7015 0 0 0 
454 454 2 24.6998 26.1041 20.1298 0 0 0 
455 455 2 23.1723 25.9137 20.086 0 0 0 
456 456 2 22.5669 26.0287 18.6746 0 0 0 
481 481 1 26.0555 22.7511 18.543 0 0 0 
482 482 2 25.4915 22.2425 19.8827 0 0 0 
117 117 1 5.98898 3.61477 21.8679 0 0 0 
297 297 1 5.73688 5.87673 26.0335 0 0 0 
298 298 2 5.4096 4.39792 25.7549 0 0 0 
299 299 2 6.61235 3.44944 25.9142 0 0 0 
300 300 2 6.28507 1.97063 25.6356 0 0 0 
457 457 1 1.97077 1.97428 23.1225 0 0 0 
458 458 2 2.27885 2.27818 21.6446 0 0 0 
459 459 2 2.08925 3.75633 21.2563 0 0 0 
217 217 1 9.4004 1.97049 23.157 0 0 0 
218 218 2 10.5936 2.82052 22.6824 0 0 0 
219 219 2 11.8676 2.00524 22.3926 0 0 0 
220 220 2 13.0608 2.85527 21.918 0 0 0 
317 317 1 13.9653 2.66208 25.758 0 0 0 
318 318 2 12.5929 3.29478 26.0547 0 0 0 
319 319 2 12.511 4.79668 25.7243 0 0 0 
320 320 2 11.1387 5.42937 26.0209 0 0 0 
225 225 1 17.9419 3.75993 26.022 0 0 0 
226 226 2 17.7026 5.28121 26.0311 0 0 0 
227 227 2 16.4237 5.71854 25.2931 0 0 0 
245 245 1 19.1195 4.96776 21.9939 0 0 0 
246 246 2 18.0151 3.89763 22.0761 0 0 0 
501 501 1 14.8451 6.37142 21.6894 0 0 0 
136 136 2 21.7109 1.9913 22.1262 0 0 0 
277 277 1 23.3297 6.74143 25.9402 0 0 0 
278 278 2 21.8067 6.94623 25.8398 0 0 0 
429 429 1 25.7319 5.56691 22.1824 0 0 0 
430 430 2 26.0261 4.20186 21.533 0 0 0 
517 517 1 22.0863 2.99248 25.9283 0 0 0 
518 518 2 23.5315 2.47294 26.0422 0 0 0 
519 519 2 24.5 3.08474 25.013 0 0 0 
520 520 2 25.9453 2.5652 25.127 0 0 0 
93 93 1 2.11018 7.39442 25.6543 0 0 0 
94 94 2 2.17807 8.93167 25.7164 0 0 0 
95 95 2 3.59187 9.48644 25.9713 0 0 0 
96 96 2 3.65976 11.0237 26.0334 0 0 0 
498 498 2 6.60291 8.77472 22.7652 0 0 0 
499 499 2 5.22328 9.02275 22.1275 0 0 0 
500 500 2 4.71928 10.4711 22.2685 0 0 0 
52 52 2 11.709 13.2911 25.2572 0 0 0 
261 261 1 8.90293 9.90142 26.0257 0 0 0 
262 262 2 10.3329 9.59943 25.5402 0 0 0 
263 263 2 10.3931 8.85793 24.1919 0 0 0 
264 264 2 11.823 8.55595 23.7064 0 0 0 
497 497 1 7.10691 7.32638 22.6242 0 0 0 
57 57 1 18.5255 9.33571 22.2632 0 0 0 
58 58 2 19.9579 8.82753 22.0148 0 0 0 
89 89 1 14.6537 11.0315 21.8716 0 0 0 
90 90 2 14.9847 11.7733 23.1799 0 0 0 
91 91 2 14.9297 10.8835 24.4356 0 0 0 
92 92 2 15.2607 11.6253 25.744 0 0 0 
137 137 1 19.0679 13.2476 22.1994 0 0 0 
138 138 2 18.3784 13.7727 23.4724 0 0 0 
139 139 2 19.2087 13.5879 24.7562 0 0 0 
228 228 2 16.1844 7.23982 25.3022 0 0 0 
280 280 2 19.8318 8.60714 25.9566 0 0 0 
59 59 2 21.0557 9.84005 22.3906 0 0 0 
60 60 2 22.4881 9.33188 22.1423 0 0 0 
257 257 1 22.8609 12.3733 25.6435 0 0 0 
258 258 2 24.2655 11.8848 26.0434 0 0 0 
259 259 2 24.6408 10.5104 25.4586 0 0 0 
260 260 2 26.0454 10.0219 25.8585 0 0 0 
279 279 2 21.3548 8.40234 26.057 0 0 0 
301 301 1 26.033 12.1272 21.6924 0 0 0 
302 302 2 24.6482 12.6382 22.1314 0 0 0 
303 303 2 24.2023 13.9291 21.4197 0 0 0 
83 83 2 6.78121 15.1024 21.3169 0 0 0 
84 84 2 5.50878 14.2836 21.6035 0 0 0 
341 341 1 2.27116 17.8419 21.9086 0 0 0 
49 49 1 8.47892 15.4572 26.026 0 0 0 
50 50 2 9.45068 14.545 25.2544 0 0 0 
51 51 2 10.7373 14.2033 26.0287 0 0 0 
81 81 1 9.36344 15.1462 21.266 0 0 0 
82 82 2 8.09101 14.3274 21.5525 0 0 0 
114 114 2 9.17785 19.5879 22.0786 0 0 0 
115 115 2 7.73709 19.9902 22.4446 0 0 0 
116 116 2 7.58159 20.5248 23.8805 0 0 0 
125 125 1 11.3832 18.0232 25.2639 0 0 0 
126 126 2 10.988 19.3 26.029 0 0 0 
127 127 2 11.2792 20.6042 25.2637 0 0 0 
140 140 2 18.5192 14.113 26.0291 0 0 0 
413 413 1 14.3785 15.6685 23.5804 0 0 0 
414 414 2 14.9964 17.002 24.0402 0 0 0 
415 415 2 15.2119 17.1009 25.5618 0 0 0 
416 416 2 15.8299 18.4344 26.0216 0 0 0 
426 426 2 20.1371 17.6657 25.4275 0 0 0 
427 427 2 19.9139 17.3854 23.9297 0 0 0 
428 428 2 18.7122 18.1347 23.3246 0 0 0 
189 189 1 26.0473 17.3019 22.5323 0 0 0 
190 190 2 25.2017 16.9433 23.7684 0 0 0 
191 191 2 25.9519 16.1023 24.8179 0 0 0 
192 192 2 25.1064 15.7437 26.0541 0 0 0 
304 304 2 22.8175 14.4401 21.8588 0 0 0 
425 425 1 21.3388 16.9164 26.0326 0 0 0 
484 484 2 24.113 20.4321 21.1054 0 0 0 
536 536 2 26.0404 20.0565 26.0503 0 0 0 
209 209 1 6.94623 23.8251 21.2633 0 0 0 
211 211 2 4.79689 22.5877 21.9855 0 0 0 
212 212 2 3.36264 22.1666 21.615 0 0 0 
229 229 1 2.89209 26.0392 22.2318 0 0 0 
230 230 2 2.02447 25.8062 23.4826 0 0 0 
231 231 2 2.8327 25.6297 24.7815 0 0 0 
232 232 2 1.96508 25.3966 26.0323 0 0 0 
122 122 2 12.1627 24.4098 21.4134 0 0 0 
123 123 2 10.8251 23.9211 22 0 0 0 
124 124 2 10.3901 24.6672 23.2746 0 0 0 
128 128 2 10.884 21.881 26.0288 0 0 0 
195 195 2 13.7613 24.6061 25.7812 0 0 0 
196 196 2 13.6828 25.9523 25.0375 0 0 0 
6 6 2 20.5692 21.8844 24.8122 0 0 0 
7 7 2 19.1744 22.5296 24.7121 0 0 0 
8 8 2 18.6627 23.124 26.0374 0 0 0 
185 185 1 16.299 21.1171 22.3847 0 0 0 
193 193 1 14.814 22.2498 25.8906 0 0 0 
194 194 2 14.7355 23.596 25.1469 0 0 0 
360 360 2 20.2077 25.851 22.7592 0 0 0 
5 5 1 21.0809 21.29 23.4869 0 0 0 
357 357 1 22.4324 26.0339 26.0354 0 0 0 
358 358 2 21.1744 26.0388 25.1472 0 0 0 
359 359 2 21.4658 25.8462 23.6474 0 0 0 
453 453 1 25.3052 25.989 21.5411 0 0 0 
533 533 1 24.4691 23.1908 24.2001 0 0 0 
534 534 2 25.4196 22.0122 24.4812 0 0 0 
535 535 2 25.0899 21.2351 25.7692 0 0 0 
ITEM: TIMESTEP
250
ITEM: NUMBER OF ATOMS
548
ITEM: BOX BOUNDS pp pp pp
0 28
0 28
0 28
ITEM: ATOMS id id type x y z ix iy iz 
377 377 1 5.54058 6.41633 5.63534 0 0 0 
378 378 2 6.17297 5.4141 4.55226 0 0 0 
379 379 2 6.32626 6.06116 3.09919 0 0 0 
380 380 2 6.94272 5.17757 2.10109 0 0 0 
13 13 1 9.70307 5.46952 6.85764 0 0 0 
285 285 1 7.77062 1.99269 6.65071 0 0 0 
421 421 1 9.92132 3.20537 1.97023 0 0 0 
422 422 2 11.4673 3.02407 1.96707 0 0 0 
423 423 2 12.1595 4.29291 2.36271 0 0 0 
424 424 2 13.6278 4.06517 2.55797 0 0 0 
445 445 1 12.8588 2.17402 5.40789 0 0 0 
446 446 2 12.2526 2.39192 6.72793 0 0 0 
77 77 1 17.5356 1.4916 5.79764 0 0 0 
78 78 2 18.1162 2.10169 4.44519 0 0 0 
79 79 2 16.941 2.45456 3.41692 0 0 0 
80 80 2 17.3349 2.4421 1.9498 0 0 0 
103 103 2 14.9397 6.36564 5.90443 0 0 0 
104 104 2 15.3725 5.07141 6.76977 0 0 0 
477 477 1 19.1997 6.55954 2.88289 0 0 0 
478 478 2 19.8567 5.83865 4.03347 0 0 0 
479 479 2 19.1418 6.10303 5.35271 0 0 0 
480 480 2 19.747 5.36014 6.49513 0 0 0 
109 109 1 23.871 4.94265 6.58927 0 0 0 
110 110 2 25.0954 4.16471 6.1936 0 0 0 
111 111 2 24.8434 2.83496 5.45056 0 0 0 
112 112 2 26.1279 2.15377 4.92997 0 0 0 
493 493 1 25.8172 5.77545 2.12577 0 0 0 
494 494 2 24.8173 4.6098 1.85727 0 0 0 
495 495 2 23.4503 4.89343 2.36304 0 0 0 
496 496 2 22.5309 3.68348 2.1623 0 0 0 
180 180 2 2.0049 12.7512 6.48501 0 0 0 
205 205 1 3.34102 13.249 2.18583 0 0 0 
544 544 2 5.99779 10.8517 4.43841 0 0 0 
14 14 2 10.1301 6.95635 6.69784 0 0 0 
15 15 2 11.0071 7.25632 5.47766 0 0 0 
16 16 2 11.5023 8.69378 5.49053 0 0 0 
215 215 2 9.77741 13.1058 2.05122 0 0 0 
216 216 2 10.5095 11.7388 1.89939 0 0 0 
473 473 1 12.5233 8.44078 1.91359 0 0 0 
474 474 2 13.9105 9.05485 1.82505 0 0 0 
541 541 1 9.42647 12.3523 5.72716 0 0 0 
542 542 2 8.06989 11.6618 5.71101 0 0 0 
543 543 2 7.3615 11.5717 4.3742 0 0 0 
101 101 1 14.9042 8.92104 5.77057 0 0 0 
102 102 2 15.2627 7.70201 6.59986 0 0 0 
234 234 2 19.1612 13.9487 5.49194 0 0 0 
235 235 2 18.2612 13.21 4.53024 0 0 0 
236 236 2 18.1902 11.7217 4.77676 0 0 0 
265 265 1 15.1337 12.932 2.13282 0 0 0 
305 305 1 21.161 9.98024 5.65524 0 0 0 
439 439 2 20.7739 11.6112 2.12787 0 0 0 
475 475 2 15.0973 8.0799 1.98695 0 0 0 
476 476 2 16.4353 8.78977 1.96608 0 0 0 
33 33 1 25.21 10.961 1.92364 0 0 0 
34 34 2 26.059 12.1617 2.21513 0 0 0 
35 35 2 25.1891 13.4022 2.41274 0 0 0 
73 73 1 25.5968 10.3139 7.1653 0 0 0 
74 74 2 25.0167 9.95001 5.7828 0 0 0 
75 75 2 25.1931 8.51464 5.4013 0 0 0 
76 76 2 24.3673 8.15467 4.25691 0 0 0 
437 437 1 20.8869 9.12608 1.68156 0 0 0 
438 438 2 21.6254 10.4281 1.74875 0 0 0 
440 440 2 21.5933 12.9543 2.24177 0 0 0 
488 488 2 23.1704 13.9712 5.53495 0 0 0 
1 1 1 5.99961 17.0425 2.53387 0 0 0 
2 2 2 6.0833 17.4515 4.03516 0 0 0 
3 3 2 4.75755 17.4986 4.78112 0 0 0 
4 4 2 4.91247 17.8951 6.20005 0 0 0 
206 206 2 2.95274 14.6107 2.91128 0 0 0 
207 207 2 2.25602 15.6539 2.01477 0 0 0 
208 208 2 1.73535 16.8812 2.73174 0 0 0 
464 464 2 2.06473 19.9887 6.41617 0 0 0 
545 545 1 3.86811 20.4801 1.78747 0 0 0 
105 105 1 12.4318 19.5354 5.87255 0 0 0 
106 106 2 10.981 19.0642 6.13983 0 0 0 
107 107 2 10.7936 17.5375 6.03785 0 0 0 
108 108 2 9.34968 17.0756 6.18314 0 0 0 
213 213 1 9.99207 15.6526 1.80657 0 0 0 
214 214 2 10.7214 14.3046 2.03993 0 0 0 
268 268 2 14.0441 16.1844 4.11798 0 0 0 
511 511 2 9.797 20.7018 1.97166 0 0 0 
512 512 2 8.79506 19.9251 2.83258 0 0 0 
233 233 1 19.3921 15.3994 5.10034 0 0 0 
266 266 2 15.0185 14.4469 2.51508 0 0 0 
267 267 2 14.169 14.6778 3.75493 0 0 0 
346 346 2 16.0158 18.5227 6.49059 0 0 0 
530 530 2 15.3892 20.8956 2.05273 0 0 0 
531 531 2 15.102 19.5256 2.62628 0 0 0 
532 532 2 14.9496 18.399 1.60884 0 0 0 
36 36 2 25.9103 14.718 2.23077 0 0 0 
486 486 2 25.3556 14.3449 6.90049 0 0 0 
487 487 2 23.9101 14.8682 6.61161 0 0 0 
490 490 2 26.3802 20.4511 3.42752 0 0 0 
491 491 2 25.9355 19.0488 3.4413 0 0 0 
492 492 2 26.1371 18.4213 4.78295 0 0 0 
505 505 1 22.0732 19.117 5.4758 0 0 0 
506 506 2 21.7582 18.0594 4.33149 0 0 0 
507 507 2 22.1363 18.5465 2.91191 0 0 0 
508 508 2 21.4833 17.7599 1.8007 0 0 0 
149 149 1 5.03918 26.0658 4.67729 0 0 0 
150 150 2 6.14732 25.2527 4.04179 0 0 0 
151 151 2 5.9585 23.7422 4.2159 0 0 0 
461 461 1 1.87605 23.7981 5.53199 0 0 0 
462 462 2 2.28914 22.4889 6.30415 0 0 0 
463 463 2 1.78038 21.1893 5.64213 0 0 0 
546 546 2 3.77509 22.0732 1.90966 0 0 0 
547 547 2 2.366 22.715 1.72087 0 0 0 
548 548 2 2.46529 24.181 1.81654 0 0 0 
132 132 2 13.1147 23.1249 6.93431 0 0 0 
152 152 2 7.0826 22.9067 3.67814 0 0 0 
254 254 2 13.0703 26.0989 3.44619 0 0 0 
255 255 2 11.6941 25.9794 4.1616 0 0 0 
256 256 2 10.4815 26.2073 3.24216 0 0 0 
509 509 1 11.735 22.3103 1.94862 0 0 0 
510 510 2 10.84 21.502 2.7882 0 0 0 
253 253 1 14.2865 25.9541 4.43166 0 0 0 
333 333 1 19.5347 21.7699 5.75043 0 0 0 
334 334 2 19.7088 21.1367 4.34002 0 0 0 
335 335 2 19.4175 22.0385 3.21813 0 0 0 
336 336 2 19.2378 21.3511 1.84113 0 0 0 
373 373 1 17.9831 25.9315 5.85054 0 0 0 
374 374 2 18.6923 25.998 4.53166 0 0 0 
375 375 2 17.9301 25.2644 3.4683 0 0 0 
376 376 2 18.7256 25.2441 2.07493 0 0 0 
529 529 1 15.6542 21.9691 3.09421 0 0 0 
169 169 1 24.6663 25.7741 1.98969 0 0 0 
170 170 2 24.5761 24.5152 2.90376 0 0 0 
171 171 2 23.2271 24.3381 3.60446 0 0 0 
172 172 2 23.1704 23.0729 4.45438 0 0 0 
281 281 1 25.8286 25.3042 6.8577 0 0 0 
282 282 2 24.4666 25.951 6.79745 0 0 0 
489 489 1 26.2989 21.1092 2.01307 0 0 0 
237 237 1 1.63722 3.11412 12.2506 0 0 0 
239 239 2 1.61858 5.13331 13.9111 0 0 0 
401 401 1 5.7358 5.95392 10.7302 0 0 0 
402 402 2 5.48637 4.53497 11.1479 0 0 0 
403 403 2 5.88826 4.20936 12.613 0 0 0 
404 404 2 5.48276 2.73059 13.0883 0 0 0 
537 537 1 1.73776 4.50431 7.01632 0 0 0 
538 538 2 1.69743 5.51215 8.15601 0 0 0 
539 539 2 2.05631 6.90603 7.64387 0 0 0 
198 198 2 10.6408 6.24768 12.9689 0 0 0 
199 199 2 9.79624 6.39141 11.7148 0 0 0 
200 200 2 10.4009 5.62385 10.5364 0 0 0 
286 286 2 8.66821 1.89013 7.9376 0 0 0 
287 287 2 7.8987 2.05298 9.26669 0 0 0 
288 288 2 8.77915 2.00167 10.5527 0 0 0 
293 293 1 13.2901 3.32313 13.5633 0 0 0 
447 447 2 13.0502 1.75007 7.83925 0 0 0 
448 448 2 12.4168 1.94907 9.32043 0 0 0 
21 21 1 16.4002 2.10527 10.4963 0 0 0 
22 22 2 17.0611 3.33768 11.1122 0 0 0 
23 23 2 17.5382 4.27016 10.055 0 0 0 
24 24 2 18.2162 5.49449 10.5526 0 0 0 
61 61 1 15.2139 6.95864 13.7675 0 0 0 
62 62 2 14.5911 6.52206 12.4228 0 0 0 
164 164 2 19.8858 2.24609 13.4778 0 0 0 
468 468 2 20.5393 2.2374 8.21974 0 0 0 
161 161 1 23.8045 2.02247 13.6984 0 0 0 
163 163 2 21.2322 1.90735 12.9809 0 0 0 
165 165 1 22.142 5.43712 11.2455 0 0 0 
166 166 2 22.3758 6.25465 12.4749 0 0 0 
410 410 2 26.046 6.79975 10.2836 0 0 0 
411 411 2 25.9476 5.30534 10.4568 0 0 0 
412 412 2 26.3109 4.73019 11.881 0 0 0 
465 465 1 24.3516 1.86961 9.39528 0 0 0 
466 466 2 22.8336 1.5829 9.40103 0 0 0 
467 467 2 22.0639 2.55546 8.41742 0 0 0 
17 17 1 6.43774 9.84477 9.2602 0 0 0 
18 18 2 5.60403 10.8775 9.98527 0 0 0 
19 19 2 6.32263 11.5747 11.0996 0 0 0 
20 20 2 5.44232 12.6001 11.8642 0 0 0 
177 177 1 2.03916 12.0787 10.4213 0 0 0 
178 178 2 2.24297 12.6871 9.06505 0 0 0 
179 179 2 1.83895 11.9127 7.79929 0 0 0 
389 389 1 2.60571 8.71361 12.5438 0 0 0 
390 390 2 3.2604 9.58246 13.6423 0 0 0 
540 540 2 1.69579 7.9513 8.71312 0 0 0 
53 53 1 14.029 12.3033 7.3981 0 0 0 
64 64 2 13.5291 7.13344 10.2604 0 0 0 
273 273 1 9.7867 10.0823 12.9124 0 0 0 
274 274 2 10.7132 10.0241 11.6746 0 0 0 
275 275 2 10.1008 10.5073 10.3696 0 0 0 
276 276 2 11.0471 10.1754 9.22666 0 0 0 
32 32 2 19.6249 13.3803 12.1852 0 0 0 
54 54 2 15.5448 12.3938 7.83517 0 0 0 
55 55 2 15.7195 13.2635 9.11345 0 0 0 
56 56 2 17.1563 13.583 9.48563 0 0 0 
63 63 2 14.0118 7.62939 11.6 0 0 0 
223 223 2 14.2732 12.3989 14.1468 0 0 0 
224 224 2 15.4517 13.1676 13.591 0 0 0 